LAMMPS data file. CGCMM style. atom_style full generated by VMD/TopoTools v1.8 on Thu Jan 19 01:40:04 CST 2023
 3000 atoms
 2000 bonds
 1000 angles
 0 dihedrals
 0 impropers
 2 atom types
 1 bond types
 1 angle types
 0 dihedral types
 0 improper types
 0.004001 31.004001  xlo xhi
 -0.026500 30.973500  ylo yhi
 0.007500 31.007500  zlo zhi

# Pair Coeffs
#
# 1  H
# 2  O

# Bond Coeffs
#
# 1  H-O

# Angle Coeffs
#
# 1  H-O-H

 Masses

 1 1.008000 # H
 2 15.999000 # O

 Atoms # full

1 1 2 -1.112800 4.539000 8.546000 27.695999 # O HOH
2 1 1 0.556400 3.605000 8.417000 27.530001 # H HOH
5 2 1 0.556400 20.476000 25.780001 26.757000 # H HOH
4 2 2 -1.112800 21.313999 26.238001 26.811001 # O HOH
3 1 1 0.556400 4.682000 9.481000 27.547001 # H HOH
6 2 1 0.556400 21.127001 27.020000 27.330999 # H HOH
7 3 2 -1.112800 0.621000 7.761000 2.282000 # O HOH
8 3 1 0.556400 0.413000 6.833000 2.173000 # H HOH
9 3 1 0.556400 0.002000 8.215000 1.709000 # H HOH
10 4 2 -1.112800 24.496000 15.720000 2.320000 # O HOH
11 4 1 0.556400 23.747999 16.021999 1.805000 # H HOH
12 4 1 0.556400 24.516001 14.773000 2.182000 # H HOH
13 5 2 -1.112800 28.603001 8.908000 26.542000 # O HOH
14 5 1 0.556400 28.459000 7.965000 26.469000 # H HOH
15 5 1 0.556400 29.392000 8.989000 27.079000 # H HOH
16 6 2 -1.112800 2.869000 4.479000 5.915000 # O HOH
17 6 1 0.556400 3.092000 3.901000 6.644000 # H HOH
18 6 1 0.556400 2.545000 3.891000 5.233000 # H HOH
19 7 2 -1.112800 3.625000 12.796000 16.722000 # O HOH
20 7 1 0.556400 4.560000 12.595000 16.740999 # H HOH
21 7 1 0.556400 3.586000 13.743000 16.582001 # H HOH
22 8 2 -1.112800 29.068001 27.892000 3.436000 # O HOH
23 8 1 0.556400 29.274000 27.995001 4.365000 # H HOH
24 8 1 0.556400 28.290001 28.433001 3.301000 # H HOH
25 9 2 -1.112800 1.865000 13.454000 25.181000 # O HOH
26 9 1 0.556400 1.046000 13.001000 25.381001 # H HOH
27 9 1 0.556400 2.550000 12.834000 25.430000 # H HOH
28 10 2 -1.112800 28.112000 5.063000 15.477000 # O HOH
29 10 1 0.556400 28.233999 6.010000 15.552000 # H HOH
30 10 1 0.556400 29.000000 4.712000 15.409000 # H HOH
31 11 2 -1.112800 0.648000 26.219000 8.852000 # O HOH
32 11 1 0.556400 0.603000 27.153999 9.052000 # H HOH
33 11 1 0.556400 0.004000 26.091999 8.156000 # H HOH
34 12 2 -1.112800 26.184999 8.966000 6.641000 # O HOH
35 12 1 0.556400 26.705999 8.215000 6.355000 # H HOH
36 12 1 0.556400 25.777000 8.678000 7.458000 # H HOH
37 13 2 -1.112800 0.046000 7.652000 27.011000 # O HOH
38 13 1 0.556400 0.925000 8.028000 27.042999 # H HOH
39 13 1 0.556400 0.170000 6.732000 27.246000 # H HOH
40 14 2 -1.112800 9.732000 14.763000 8.583000 # O HOH
41 14 1 0.556400 10.556000 14.290000 8.701000 # H HOH
42 14 1 0.556400 9.059000 14.081000 8.606000 # H HOH
43 15 2 -1.112800 3.546000 5.769000 23.639000 # O HOH
44 15 1 0.556400 2.604000 5.664000 23.500999 # H HOH
45 15 1 0.556400 3.800000 5.001000 24.152000 # H HOH
46 16 2 -1.112800 18.618000 14.785000 15.325000 # O HOH
47 16 1 0.556400 19.141001 14.934000 16.113001 # H HOH
48 16 1 0.556400 19.263000 14.616000 14.638000 # H HOH
49 17 2 -1.112800 7.492000 19.372999 0.727000 # O HOH
50 17 1 0.556400 6.959000 18.580000 0.789000 # H HOH
51 17 1 0.556400 8.394000 19.063000 0.818000 # H HOH
52 18 2 -1.112800 30.009001 9.648000 11.149000 # O HOH
53 18 1 0.556400 29.702000 10.487000 10.805000 # H HOH
54 18 1 0.556400 30.961000 9.741000 11.192000 # H HOH
55 19 2 -1.112800 1.013000 1.518000 26.697001 # O HOH
56 19 1 0.556400 1.344000 1.619000 25.804001 # H HOH
57 19 1 0.556400 1.800000 1.418000 27.233999 # H HOH
58 20 2 -1.112800 17.712000 12.425000 16.599001 # O HOH
59 20 1 0.556400 17.546000 13.287000 16.982000 # H HOH
60 20 1 0.556400 17.861000 12.600000 15.670000 # H HOH
61 21 2 -1.112800 4.406000 22.566999 13.598000 # O HOH
62 21 1 0.556400 3.765000 21.858999 13.545000 # H HOH
63 21 1 0.556400 5.202000 22.146999 13.924000 # H HOH
64 22 2 -1.112800 13.607000 5.383000 0.792000 # O HOH
65 22 1 0.556400 13.495000 6.285000 1.093000 # H HOH
66 22 1 0.556400 14.473000 5.371000 0.384000 # H HOH
67 23 2 -1.112800 27.282000 3.260000 13.315000 # O HOH
68 23 1 0.556400 27.222000 3.487000 14.243000 # H HOH
69 23 1 0.556400 26.614000 2.586000 13.190000 # H HOH
70 24 2 -1.112800 7.536000 16.454000 19.445000 # O HOH
71 24 1 0.556400 8.457000 16.313999 19.225000 # H HOH
72 24 1 0.556400 7.397000 15.936000 20.238001 # H HOH
73 25 2 -1.112800 10.124000 24.537001 15.320000 # O HOH
74 25 1 0.556400 9.318000 24.593000 15.834000 # H HOH
75 25 1 0.556400 10.223000 25.407000 14.935000 # H HOH
76 26 2 -1.112800 19.606001 1.036000 17.348000 # O HOH
77 26 1 0.556400 20.548000 0.954000 17.202000 # H HOH
78 26 1 0.556400 19.301001 0.136000 17.464001 # H HOH
79 27 2 -1.112800 2.171000 31.002001 24.857000 # O HOH
80 27 1 0.556400 2.613000 30.568001 25.586000 # H HOH
81 27 1 0.556400 1.263000 30.705000 24.915001 # H HOH
82 28 2 -1.112800 24.216999 26.236000 28.547001 # O HOH
83 28 1 0.556400 23.983999 26.097000 29.465000 # H HOH
84 28 1 0.556400 24.847000 26.957001 28.566000 # H HOH
85 29 2 -1.112800 13.179000 23.146000 19.277000 # O HOH
86 29 1 0.556400 13.129000 24.087999 19.443001 # H HOH
87 29 1 0.556400 12.696000 23.021000 18.459999 # H HOH
88 30 2 -1.112800 5.703000 15.190000 13.956000 # O HOH
89 30 1 0.556400 6.544000 15.352000 13.529000 # H HOH
90 30 1 0.556400 5.206000 14.676000 13.319000 # H HOH
91 31 2 -1.112800 0.168000 17.400999 24.611000 # O HOH
92 31 1 0.556400 0.861000 16.770000 24.416000 # H HOH
93 31 1 0.556400 0.000000 17.291000 25.547001 # H HOH
94 32 2 -1.112800 13.497000 12.867000 16.000000 # O HOH
95 32 1 0.556400 12.941000 13.080000 15.251000 # H HOH
96 32 1 0.556400 14.163000 13.554000 16.007999 # H HOH
97 33 2 -1.112800 2.830000 17.120001 1.149000 # O HOH
98 33 1 0.556400 3.244000 17.927999 0.845000 # H HOH
99 33 1 0.556400 1.933000 17.377001 1.364000 # H HOH
100 34 2 -1.112800 4.636000 12.330000 12.100000 # O HOH
101 34 1 0.556400 4.181000 13.172000 12.081000 # H HOH
102 34 1 0.556400 3.937000 11.678000 12.045000 # H HOH
103 35 2 -1.112800 23.069000 6.535000 13.478000 # O HOH
104 35 1 0.556400 22.357000 5.895000 13.464000 # H HOH
105 35 1 0.556400 22.645000 7.361000 13.711000 # H HOH
106 36 2 -1.112800 20.263000 6.737000 0.001000 # O HOH
107 36 1 0.556400 21.218000 6.805000 0.006000 # H HOH
108 36 1 0.556400 19.959000 7.645000 -0.001000 # H HOH
109 37 2 -1.112800 6.796000 18.237000 23.597000 # O HOH
110 37 1 0.556400 5.965000 18.315001 23.128000 # H HOH
111 37 1 0.556400 6.852000 17.309999 23.832001 # H HOH
112 38 2 -1.112800 25.914000 23.283001 19.127001 # O HOH
113 38 1 0.556400 26.528999 23.333000 18.395000 # H HOH
114 38 1 0.556400 25.285999 22.610001 18.867001 # H HOH
115 39 2 -1.112800 22.775000 19.733999 3.886000 # O HOH
116 39 1 0.556400 23.020000 20.440001 4.485000 # H HOH
117 39 1 0.556400 23.608999 19.368000 3.593000 # H HOH
118 40 2 -1.112800 27.768999 10.271000 29.346001 # O HOH
119 40 1 0.556400 28.330999 9.529000 29.120001 # H HOH
120 40 1 0.556400 28.271999 11.042000 29.083000 # H HOH
121 41 2 -1.112800 0.228000 26.223000 21.693001 # O HOH
122 41 1 0.556400 1.162000 26.174000 21.898001 # H HOH
123 41 1 0.556400 -0.002000 27.139999 21.843000 # H HOH
124 42 2 -1.112800 20.825001 20.695999 17.594000 # O HOH
125 42 1 0.556400 21.768999 20.548000 17.649000 # H HOH
126 42 1 0.556400 20.544001 20.787001 18.504999 # H HOH
127 43 2 -1.112800 5.118000 13.152000 20.979000 # O HOH
128 43 1 0.556400 4.390000 13.770000 21.042999 # H HOH
129 43 1 0.556400 4.700000 12.292000 20.934999 # H HOH
130 44 2 -1.112800 5.247000 16.068001 2.335000 # O HOH
131 44 1 0.556400 4.335000 16.242001 2.567000 # H HOH
132 44 1 0.556400 5.286000 15.120000 2.208000 # H HOH
133 45 2 -1.112800 24.231001 11.075000 6.214000 # O HOH
134 45 1 0.556400 24.327000 10.959000 7.160000 # H HOH
135 45 1 0.556400 25.108000 10.923000 5.863000 # H HOH
136 46 2 -1.112800 7.605000 15.420000 16.525999 # O HOH
137 46 1 0.556400 7.366000 15.571000 17.441000 # H HOH
138 46 1 0.556400 8.551000 15.562000 16.497999 # H HOH
139 47 2 -1.112800 26.429001 19.167000 4.287000 # O HOH
140 47 1 0.556400 26.209999 20.077000 4.086000 # H HOH
141 47 1 0.556400 25.584000 18.718000 4.315000 # H HOH
142 48 2 -1.112800 30.187000 8.887000 18.357000 # O HOH
143 48 1 0.556400 29.643000 9.008000 19.136000 # H HOH
144 48 1 0.556400 31.000000 9.350000 18.558001 # H HOH
145 49 2 -1.112800 7.784000 29.195999 14.817000 # O HOH
146 49 1 0.556400 7.798000 28.520000 15.495000 # H HOH
147 49 1 0.556400 7.804000 28.709999 13.992000 # H HOH
148 50 2 -1.112800 5.018000 20.115999 14.750000 # O HOH
149 50 1 0.556400 5.361000 19.945999 15.627000 # H HOH
150 50 1 0.556400 4.190000 19.636000 14.719000 # H HOH
151 51 2 -1.112800 18.823000 27.886000 2.253000 # O HOH
152 51 1 0.556400 17.886999 27.743999 2.111000 # H HOH
153 51 1 0.556400 18.952999 27.709000 3.184000 # H HOH
154 52 2 -1.112800 0.082000 10.086000 25.632000 # O HOH
155 52 1 0.556400 0.945000 10.316000 25.287001 # H HOH
156 52 1 0.556400 -0.024000 9.160000 25.412001 # H HOH
157 53 2 -1.112800 3.949000 3.861000 15.987000 # O HOH
158 53 1 0.556400 3.036000 3.575000 15.953000 # H HOH
159 53 1 0.556400 4.455000 3.049000 16.004000 # H HOH
160 54 2 -1.112800 7.315000 3.798000 27.487000 # O HOH
161 54 1 0.556400 6.457000 3.860000 27.066000 # H HOH
162 54 1 0.556400 7.169000 4.120000 28.377001 # H HOH
163 55 2 -1.112800 15.046000 7.469000 26.854000 # O HOH
164 55 1 0.556400 15.918000 7.231000 26.538000 # H HOH
165 55 1 0.556400 15.014000 8.422000 26.774000 # H HOH
166 56 2 -1.112800 14.375000 4.455000 23.986000 # O HOH
167 56 1 0.556400 13.463000 4.179000 23.898001 # H HOH
168 56 1 0.556400 14.868000 3.637000 24.049999 # H HOH
169 57 2 -1.112800 9.947000 0.945000 2.505000 # O HOH
170 57 1 0.556400 9.907000 1.859000 2.785000 # H HOH
171 57 1 0.556400 9.656000 0.961000 1.593000 # H HOH
172 58 2 -1.112800 12.499000 16.559999 14.576000 # O HOH
173 58 1 0.556400 13.051000 16.228001 13.867000 # H HOH
174 58 1 0.556400 12.185000 15.774000 15.024000 # H HOH
175 59 2 -1.112800 2.183000 7.156000 0.875000 # O HOH
176 59 1 0.556400 1.858000 6.939000 0.001000 # H HOH
177 59 1 0.556400 2.533000 6.331000 1.212000 # H HOH
178 60 2 -1.112800 9.985000 27.653999 4.590000 # O HOH
179 60 1 0.556400 9.111000 27.274000 4.502000 # H HOH
180 60 1 0.556400 10.503000 26.968000 5.012000 # H HOH
181 61 2 -1.112800 18.782000 2.144000 20.907000 # O HOH
182 61 1 0.556400 18.261000 2.934000 20.764999 # H HOH
183 61 1 0.556400 19.621000 2.466000 21.237000 # H HOH
184 62 2 -1.112800 24.483999 28.167999 21.400000 # O HOH
185 62 1 0.556400 24.212000 28.530001 22.243000 # H HOH
186 62 1 0.556400 23.820999 27.507999 21.197001 # H HOH
187 63 2 -1.112800 19.330000 21.763000 20.832001 # O HOH
188 63 1 0.556400 19.487000 22.707001 20.795000 # H HOH
189 63 1 0.556400 18.417000 21.681999 21.107000 # H HOH
190 64 2 -1.112800 25.825001 8.284000 12.876000 # O HOH
191 64 1 0.556400 24.924999 7.964000 12.819000 # H HOH
192 64 1 0.556400 26.169001 7.890000 13.678000 # H HOH
193 65 2 -1.112800 2.072000 30.202000 22.313999 # O HOH
194 65 1 0.556400 1.182000 30.499001 22.125000 # H HOH
195 65 1 0.556400 2.546000 30.999001 22.551001 # H HOH
196 66 2 -1.112800 17.355000 4.527000 0.905000 # O HOH
197 66 1 0.556400 17.382999 5.394000 1.309000 # H HOH
198 66 1 0.556400 16.499001 4.175000 1.153000 # H HOH
199 67 2 -1.112800 3.825000 30.434999 15.440000 # O HOH
200 67 1 0.556400 4.546000 31.002001 15.714000 # H HOH
201 67 1 0.556400 3.482000 30.070999 16.257000 # H HOH
202 68 2 -1.112800 8.981000 1.579000 28.990999 # O HOH
203 68 1 0.556400 9.124000 2.525000 29.000000 # H HOH
204 68 1 0.556400 8.029000 1.481000 28.959000 # H HOH
205 69 2 -1.112800 23.007000 11.006000 9.805000 # O HOH
206 69 1 0.556400 22.075001 10.810000 9.903000 # H HOH
207 69 1 0.556400 23.056000 11.961000 9.843000 # H HOH
208 70 2 -1.112800 6.609000 0.034000 21.125000 # O HOH
209 70 1 0.556400 7.062000 0.468000 20.400999 # H HOH
210 70 1 0.556400 5.693000 0.000000 20.848000 # H HOH
211 71 2 -1.112800 13.217000 25.167000 17.018000 # O HOH
212 71 1 0.556400 12.355000 24.862000 17.304001 # H HOH
213 71 1 0.556400 13.785000 24.402000 17.108999 # H HOH
214 72 2 -1.112800 0.034000 21.042999 19.120001 # O HOH
215 72 1 0.556400 0.000000 20.238001 18.601999 # H HOH
216 72 1 0.556400 0.935000 21.351000 19.025999 # H HOH
217 73 2 -1.112800 14.520000 2.805000 9.843000 # O HOH
218 73 1 0.556400 14.258000 1.917000 10.090000 # H HOH
219 73 1 0.556400 13.794000 3.358000 10.131000 # H HOH
220 74 2 -1.112800 4.164000 12.746000 9.460000 # O HOH
221 74 1 0.556400 4.520000 13.602000 9.700000 # H HOH
222 74 1 0.556400 3.447000 12.602000 10.078000 # H HOH
223 75 2 -1.112800 15.328000 11.217000 9.136000 # O HOH
224 75 1 0.556400 14.952000 10.352000 9.300000 # H HOH
225 75 1 0.556400 16.033001 11.057000 8.508000 # H HOH
226 76 2 -1.112800 12.258000 27.889999 9.318000 # O HOH
227 76 1 0.556400 11.438000 28.368999 9.198000 # H HOH
228 76 1 0.556400 11.991000 27.040001 9.668000 # H HOH
229 77 2 -1.112800 0.762000 18.118000 27.830999 # O HOH
230 77 1 0.556400 0.174000 17.368000 27.740000 # H HOH
231 77 1 0.556400 1.621000 17.730000 27.996000 # H HOH
232 78 2 -1.112800 22.993999 6.840000 2.975000 # O HOH
233 78 1 0.556400 22.910000 5.917000 2.736000 # H HOH
234 78 1 0.556400 22.150000 7.227000 2.742000 # H HOH
235 79 2 -1.112800 17.070000 26.083000 3.347000 # O HOH
236 79 1 0.556400 16.426001 25.493000 2.956000 # H HOH
237 79 1 0.556400 17.608000 25.518000 3.901000 # H HOH
238 80 2 -1.112800 10.445000 21.559000 15.068000 # O HOH
239 80 1 0.556400 10.846000 21.028999 14.379000 # H HOH
240 80 1 0.556400 9.685000 21.051001 15.350000 # H HOH
241 81 2 -1.112800 10.071000 28.868999 20.610001 # O HOH
242 81 1 0.556400 10.506000 28.038000 20.417999 # H HOH
243 81 1 0.556400 9.173000 28.746000 20.302000 # H HOH
244 82 2 -1.112800 28.573000 0.040000 24.509001 # O HOH
245 82 1 0.556400 28.143000 0.836000 24.820000 # H HOH
246 82 1 0.556400 29.500999 0.270000 24.466000 # H HOH
247 83 2 -1.112800 14.620000 13.110000 28.962000 # O HOH
248 83 1 0.556400 14.740000 14.059000 29.003000 # H HOH
249 83 1 0.556400 13.671000 12.990000 28.921000 # H HOH
250 84 2 -1.112800 25.976999 24.242001 29.615000 # O HOH
251 84 1 0.556400 25.247000 24.445000 30.198999 # H HOH
252 84 1 0.556400 26.724001 24.113001 30.198999 # H HOH
253 85 2 -1.112800 0.764000 10.641000 20.000999 # O HOH
254 85 1 0.556400 0.219000 10.003000 20.464001 # H HOH
255 85 1 0.556400 0.485000 11.489000 20.346001 # H HOH
256 86 2 -1.112800 6.042000 28.629000 3.849000 # O HOH
257 86 1 0.556400 5.430000 29.313999 4.120000 # H HOH
258 86 1 0.556400 6.816000 29.105000 3.548000 # H HOH
259 87 2 -1.112800 9.292000 8.650000 21.756001 # O HOH
260 87 1 0.556400 10.046000 9.032000 22.207001 # H HOH
261 87 1 0.556400 9.673000 8.143000 21.039000 # H HOH
262 88 2 -1.112800 11.303000 24.542999 24.754000 # O HOH
263 88 1 0.556400 12.230000 24.305000 24.761000 # H HOH
264 88 1 0.556400 10.884000 23.892000 25.316999 # H HOH
265 89 2 -1.112800 16.523001 2.845000 5.265000 # O HOH
266 89 1 0.556400 16.875000 3.362000 4.540000 # H HOH
267 89 1 0.556400 16.947001 1.991000 5.179000 # H HOH
268 90 2 -1.112800 2.169000 9.270000 13.537000 # O HOH
269 90 1 0.556400 2.529000 10.155000 13.477000 # H HOH
270 90 1 0.556400 2.576000 8.898000 14.320000 # H HOH
271 91 2 -1.112800 0.264000 4.230000 26.254000 # O HOH
272 91 1 0.556400 -0.051000 4.791000 25.545000 # H HOH
273 91 1 0.556400 0.000000 3.346000 25.997000 # H HOH
274 92 2 -1.112800 22.211000 11.327000 27.298000 # O HOH
275 92 1 0.556400 23.139000 11.555000 27.240999 # H HOH
276 92 1 0.556400 22.205999 10.398000 27.528999 # H HOH
277 93 2 -1.112800 22.750000 19.348000 22.122000 # O HOH
278 93 1 0.556400 23.239000 19.969000 21.582001 # H HOH
279 93 1 0.556400 23.228001 18.523001 22.031000 # H HOH
280 94 2 -1.112800 6.308000 0.260000 23.868999 # O HOH
281 94 1 0.556400 7.196000 0.303000 23.513000 # H HOH
282 94 1 0.556400 5.739000 0.410000 23.113001 # H HOH
283 95 2 -1.112800 21.610001 10.522000 7.596000 # O HOH
284 95 1 0.556400 22.207001 11.252000 7.759000 # H HOH
285 95 1 0.556400 20.746000 10.929000 7.529000 # H HOH
286 96 2 -1.112800 3.406000 28.738001 9.626000 # O HOH
287 96 1 0.556400 2.910000 28.299999 8.934000 # H HOH
288 96 1 0.556400 3.669000 29.573999 9.241000 # H HOH
289 97 2 -1.112800 7.075000 18.621000 11.359000 # O HOH
290 97 1 0.556400 7.298000 19.542000 11.223000 # H HOH
291 97 1 0.556400 7.143000 18.495001 12.306000 # H HOH
292 98 2 -1.112800 10.599000 4.255000 13.719000 # O HOH
293 98 1 0.556400 11.400000 4.648000 13.373000 # H HOH
294 98 1 0.556400 10.768000 3.312000 13.702000 # H HOH
295 99 2 -1.112800 10.964000 1.543000 15.668000 # O HOH
296 99 1 0.556400 11.033000 2.496000 15.726000 # H HOH
297 99 1 0.556400 10.738000 1.374000 14.753000 # H HOH
298 100 2 -1.112800 14.798000 21.556999 5.922000 # O HOH
299 100 1 0.556400 13.938000 21.186001 5.721000 # H HOH
300 100 1 0.556400 15.304000 20.819000 6.261000 # H HOH
301 101 2 -1.112800 25.044001 25.818001 19.924000 # O HOH
302 101 1 0.556400 24.472000 26.038000 19.188999 # H HOH
303 101 1 0.556400 25.929001 25.969000 19.594000 # H HOH
304 102 2 -1.112800 28.464001 30.195999 17.170000 # O HOH
305 102 1 0.556400 28.968000 31.004000 17.072001 # H HOH
306 102 1 0.556400 28.235001 29.945999 16.275000 # H HOH
307 103 2 -1.112800 22.912001 15.075000 25.410000 # O HOH
308 103 1 0.556400 22.115999 15.166000 24.886000 # H HOH
309 103 1 0.556400 22.629999 14.603000 26.194000 # H HOH
310 104 2 -1.112800 16.530001 2.191000 7.450000 # O HOH
311 104 1 0.556400 17.063000 2.985000 7.488000 # H HOH
312 104 1 0.556400 17.162001 1.485000 7.309000 # H HOH
313 105 2 -1.112800 9.110000 6.334000 0.415000 # O HOH
314 105 1 0.556400 9.968000 6.544000 0.783000 # H HOH
315 105 1 0.556400 8.821000 7.147000 0.000000 # H HOH
316 106 2 -1.112800 7.642000 7.701000 12.647000 # O HOH
317 106 1 0.556400 7.804000 7.110000 13.383000 # H HOH
318 106 1 0.556400 6.779000 7.446000 12.320000 # H HOH
319 107 2 -1.112800 13.050000 1.394000 16.808001 # O HOH
320 107 1 0.556400 13.709000 2.055000 16.597000 # H HOH
321 107 1 0.556400 12.397000 1.863000 17.327000 # H HOH
322 108 2 -1.112800 6.075000 6.550000 17.718000 # O HOH
323 108 1 0.556400 6.334000 7.424000 18.011999 # H HOH
324 108 1 0.556400 5.182000 6.662000 17.393000 # H HOH
325 109 2 -1.112800 5.518000 28.530001 28.579000 # O HOH
326 109 1 0.556400 5.603000 28.665001 29.523001 # H HOH
327 109 1 0.556400 6.213000 27.908001 28.362000 # H HOH
328 110 2 -1.112800 3.785000 3.878000 10.401000 # O HOH
329 110 1 0.556400 4.399000 3.145000 10.353000 # H HOH
330 110 1 0.556400 2.923000 3.465000 10.454000 # H HOH
331 111 2 -1.112800 2.934000 27.601999 18.681999 # O HOH
332 111 1 0.556400 2.025000 27.365000 18.496000 # H HOH
333 111 1 0.556400 3.410000 26.773001 18.648001 # H HOH
334 112 2 -1.112800 12.424000 13.216000 26.497999 # O HOH
335 112 1 0.556400 12.353000 14.077000 26.086000 # H HOH
336 112 1 0.556400 13.364000 13.093000 26.636000 # H HOH
337 113 2 -1.112800 15.570000 1.748000 27.391001 # O HOH
338 113 1 0.556400 15.681000 0.913000 26.938000 # H HOH
339 113 1 0.556400 16.430000 1.933000 27.768000 # H HOH
340 114 2 -1.112800 9.233000 28.355000 6.472000 # O HOH
341 114 1 0.556400 8.505000 27.733999 6.512000 # H HOH
342 114 1 0.556400 9.958000 27.902000 6.903000 # H HOH
343 115 2 -1.112800 19.260000 20.481001 13.335000 # O HOH
344 115 1 0.556400 18.483999 20.610001 13.882000 # H HOH
345 115 1 0.556400 19.943001 20.208000 13.948000 # H HOH
346 116 2 -1.112800 22.587999 9.578000 13.725000 # O HOH
347 116 1 0.556400 23.539000 9.488000 13.655000 # H HOH
348 116 1 0.556400 22.261999 9.362000 12.852000 # H HOH
349 117 2 -1.112800 21.422001 25.450001 4.513000 # O HOH
350 117 1 0.556400 21.101000 26.341999 4.647000 # H HOH
351 117 1 0.556400 22.341999 25.485001 4.773000 # H HOH
352 118 2 -1.112800 24.240999 4.937000 6.761000 # O HOH
353 118 1 0.556400 23.444000 4.689000 7.231000 # H HOH
354 118 1 0.556400 23.959999 5.627000 6.160000 # H HOH
355 119 2 -1.112800 19.584000 4.925000 22.481001 # O HOH
356 119 1 0.556400 20.340000 4.339000 22.440001 # H HOH
357 119 1 0.556400 18.827000 4.339000 22.480000 # H HOH
358 120 2 -1.112800 15.282000 17.179001 24.679001 # O HOH
359 120 1 0.556400 14.333000 17.233000 24.787001 # H HOH
360 120 1 0.556400 15.627000 17.198999 25.572001 # H HOH
361 121 2 -1.112800 14.623000 26.983000 23.813000 # O HOH
362 121 1 0.556400 15.285000 26.521000 24.327999 # H HOH
363 121 1 0.556400 14.661000 27.886000 24.128000 # H HOH
364 122 2 -1.112800 18.298000 23.113001 7.411000 # O HOH
365 122 1 0.556400 18.166000 22.950001 6.477000 # H HOH
366 122 1 0.556400 19.132999 22.688999 7.613000 # H HOH
367 123 2 -1.112800 28.271000 27.417000 15.152000 # O HOH
368 123 1 0.556400 28.006001 27.302999 14.239000 # H HOH
369 123 1 0.556400 28.861000 28.171000 15.138000 # H HOH
370 124 2 -1.112800 20.503000 15.104000 10.533000 # O HOH
371 124 1 0.556400 19.999001 14.822000 11.296000 # H HOH
372 124 1 0.556400 20.938999 15.908000 10.816000 # H HOH
373 125 2 -1.112800 15.056000 0.961000 4.392000 # O HOH
374 125 1 0.556400 14.460000 1.091000 5.130000 # H HOH
375 125 1 0.556400 15.460000 0.109000 4.558000 # H HOH
376 126 2 -1.112800 5.574000 2.606000 6.143000 # O HOH
377 126 1 0.556400 6.266000 3.197000 6.439000 # H HOH
378 126 1 0.556400 5.955000 1.731000 6.223000 # H HOH
379 127 2 -1.112800 21.993999 2.086000 27.788000 # O HOH
380 127 1 0.556400 22.799000 2.480000 28.122999 # H HOH
381 127 1 0.556400 21.993000 1.199000 28.148001 # H HOH
382 128 2 -1.112800 9.218000 17.650999 17.393999 # O HOH
383 128 1 0.556400 9.486000 18.548000 17.591999 # H HOH
384 128 1 0.556400 9.737000 17.409000 16.627001 # H HOH
385 129 2 -1.112800 16.635000 9.155000 25.481001 # O HOH
386 129 1 0.556400 16.719999 8.430000 24.861000 # H HOH
387 129 1 0.556400 17.464001 9.627000 25.414000 # H HOH
388 130 2 -1.112800 10.929000 25.514000 3.171000 # O HOH
389 130 1 0.556400 10.324000 26.209000 2.913000 # H HOH
390 130 1 0.556400 11.706000 25.976999 3.484000 # H HOH
391 131 2 -1.112800 4.732000 19.507999 25.382000 # O HOH
392 131 1 0.556400 5.117000 20.117001 24.752001 # H HOH
393 131 1 0.556400 5.016000 18.643999 25.084000 # H HOH
394 132 2 -1.112800 27.107000 2.050000 21.702999 # O HOH
395 132 1 0.556400 26.745001 2.783000 21.205999 # H HOH
396 132 1 0.556400 27.723000 1.632000 21.101000 # H HOH
397 133 2 -1.112800 12.677000 8.326000 25.191000 # O HOH
398 133 1 0.556400 12.696000 7.371000 25.127001 # H HOH
399 133 1 0.556400 13.593000 8.591000 25.101999 # H HOH
400 134 2 -1.112800 19.246000 3.766000 11.464000 # O HOH
401 134 1 0.556400 19.959999 3.912000 10.843000 # H HOH
402 134 1 0.556400 19.511000 2.989000 11.956000 # H HOH
403 135 2 -1.112800 20.614000 22.964001 25.709999 # O HOH
404 135 1 0.556400 20.969999 22.302000 26.302000 # H HOH
405 135 1 0.556400 20.263000 23.639999 26.290001 # H HOH
406 136 2 -1.112800 6.492000 14.254000 11.581000 # O HOH
407 136 1 0.556400 5.737000 14.689000 11.185000 # H HOH
408 136 1 0.556400 6.427000 13.345000 11.287000 # H HOH
409 137 2 -1.112800 2.790000 6.342000 19.218000 # O HOH
410 137 1 0.556400 2.722000 7.255000 19.497999 # H HOH
411 137 1 0.556400 2.265000 6.297000 18.417999 # H HOH
412 138 2 -1.112800 5.831000 23.393000 4.920000 # O HOH
413 138 1 0.556400 5.446000 22.660000 5.400000 # H HOH
414 138 1 0.556400 5.121000 24.031000 4.848000 # H HOH
415 139 2 -1.112800 15.500000 28.141001 10.156000 # O HOH
416 139 1 0.556400 15.512000 27.504999 10.872000 # H HOH
417 139 1 0.556400 14.572000 28.339001 10.028000 # H HOH
418 140 2 -1.112800 6.735000 15.273000 7.583000 # O HOH
419 140 1 0.556400 7.447000 15.912000 7.612000 # H HOH
420 140 1 0.556400 5.938000 15.803000 7.554000 # H HOH
421 141 2 -1.112800 17.046000 6.168000 14.685000 # O HOH
422 141 1 0.556400 17.563000 5.549000 15.202000 # H HOH
423 141 1 0.556400 17.357000 6.049000 13.787000 # H HOH
424 142 2 -1.112800 1.062000 9.680000 29.232000 # O HOH
425 142 1 0.556400 1.830000 10.180000 28.954000 # H HOH
426 142 1 0.556400 1.339000 8.766000 29.181999 # H HOH
427 143 2 -1.112800 12.889000 21.136000 15.320000 # O HOH
428 143 1 0.556400 13.407000 20.351999 15.501000 # H HOH
429 143 1 0.556400 12.360000 21.261999 16.108000 # H HOH
430 144 2 -1.112800 4.285000 18.933001 12.536000 # O HOH
431 144 1 0.556400 4.510000 18.006001 12.461000 # H HOH
432 144 1 0.556400 5.125000 19.389000 12.478000 # H HOH
433 145 2 -1.112800 10.890000 5.504000 8.257000 # O HOH
434 145 1 0.556400 10.412000 4.933000 7.655000 # H HOH
435 145 1 0.556400 10.370000 5.495000 9.060000 # H HOH
436 146 2 -1.112800 20.274000 18.507999 9.961000 # O HOH
437 146 1 0.556400 20.521000 19.424999 10.084000 # H HOH
438 146 1 0.556400 21.059000 18.014000 10.194000 # H HOH
439 147 2 -1.112800 13.347000 6.423000 10.680000 # O HOH
440 147 1 0.556400 12.493000 5.990000 10.673000 # H HOH
441 147 1 0.556400 13.980000 5.705000 10.674000 # H HOH
442 148 2 -1.112800 8.367000 30.201000 4.659000 # O HOH
443 148 1 0.556400 8.708000 31.014999 4.286000 # H HOH
444 148 1 0.556400 8.867000 29.510000 4.224000 # H HOH
445 149 2 -1.112800 1.127000 7.756000 24.174999 # O HOH
446 149 1 0.556400 1.701000 7.244000 24.745001 # H HOH
447 149 1 0.556400 1.316000 7.434000 23.292999 # H HOH
448 150 2 -1.112800 4.917000 30.738001 24.643999 # O HOH
449 150 1 0.556400 5.572000 30.983999 23.990000 # H HOH
450 150 1 0.556400 5.289000 29.969999 25.077999 # H HOH
451 151 2 -1.112800 23.054001 9.775000 2.285000 # O HOH
452 151 1 0.556400 22.240000 10.177000 2.590000 # H HOH
453 151 1 0.556400 23.275999 9.138000 2.965000 # H HOH
454 152 2 -1.112800 25.854000 17.719999 13.726000 # O HOH
455 152 1 0.556400 25.469000 18.493999 13.314000 # H HOH
456 152 1 0.556400 25.101999 17.207001 14.022000 # H HOH
457 153 2 -1.112800 8.785000 3.810000 8.785000 # O HOH
458 153 1 0.556400 8.001000 3.728000 8.241000 # H HOH
459 153 1 0.556400 9.079000 2.909000 8.921000 # H HOH
460 154 2 -1.112800 13.834000 25.139000 11.138000 # O HOH
461 154 1 0.556400 13.441000 25.990999 10.952000 # H HOH
462 154 1 0.556400 14.762000 25.327999 11.280000 # H HOH
463 155 2 -1.112800 12.910000 24.926001 22.572001 # O HOH
464 155 1 0.556400 12.777000 25.215000 21.669001 # H HOH
465 155 1 0.556400 12.540000 24.042999 22.599001 # H HOH
466 156 2 -1.112800 5.946000 24.889999 0.010000 # O HOH
467 156 1 0.556400 5.254000 25.281000 0.543000 # H HOH
468 156 1 0.556400 6.698000 25.471001 0.130000 # H HOH
469 157 2 -1.112800 2.652000 28.436001 25.041000 # O HOH
470 157 1 0.556400 2.128000 28.775999 24.315001 # H HOH
471 157 1 0.556400 3.206000 27.763000 24.643000 # H HOH
472 158 2 -1.112800 11.762000 9.613000 23.646000 # O HOH
473 158 1 0.556400 12.685000 9.686000 23.402000 # H HOH
474 158 1 0.556400 11.406000 10.490000 23.500000 # H HOH
475 159 2 -1.112800 16.583000 27.028000 6.551000 # O HOH
476 159 1 0.556400 17.537001 26.950001 6.583000 # H HOH
477 159 1 0.556400 16.396999 27.333000 5.663000 # H HOH
478 160 2 -1.112800 11.531000 13.656000 6.834000 # O HOH
479 160 1 0.556400 11.692000 12.884000 6.290000 # H HOH
480 160 1 0.556400 12.070000 14.342000 6.442000 # H HOH
481 161 2 -1.112800 30.299000 28.801001 19.993999 # O HOH
482 161 1 0.556400 29.868999 28.163000 19.424999 # H HOH
483 161 1 0.556400 31.000000 28.308001 20.421000 # H HOH
484 162 2 -1.112800 19.320999 24.492001 19.091000 # O HOH
485 162 1 0.556400 19.273001 24.684000 18.153999 # H HOH
486 162 1 0.556400 20.171000 24.066999 19.205999 # H HOH
487 163 2 -1.112800 0.876000 26.169001 28.818001 # O HOH
488 163 1 0.556400 1.754000 26.535999 28.714001 # H HOH
489 163 1 0.556400 0.307000 26.931999 28.913000 # H HOH
490 164 2 -1.112800 6.359000 2.320000 21.364000 # O HOH
491 164 1 0.556400 7.138000 2.613000 20.889999 # H HOH
492 164 1 0.556400 6.544000 2.529000 22.280001 # H HOH
493 165 2 -1.112800 4.069000 3.316000 2.471000 # O HOH
494 165 1 0.556400 3.124000 3.382000 2.615000 # H HOH
495 165 1 0.556400 4.242000 2.375000 2.441000 # H HOH
496 166 2 -1.112800 12.276000 11.583000 27.962999 # O HOH
497 166 1 0.556400 13.025000 10.988000 28.002001 # H HOH
498 166 1 0.556400 11.511000 11.009000 28.014000 # H HOH
499 167 2 -1.112800 2.475000 30.188999 11.811000 # O HOH
500 167 1 0.556400 3.327000 30.330999 12.222000 # H HOH
501 167 1 0.556400 2.117000 29.422001 12.259000 # H HOH
502 168 2 -1.112800 11.290000 30.396999 22.938000 # O HOH
503 168 1 0.556400 11.195000 31.000000 23.674999 # H HOH
504 168 1 0.556400 10.899000 29.579000 23.245001 # H HOH
505 169 2 -1.112800 22.740999 6.149000 10.602000 # O HOH
506 169 1 0.556400 21.990999 5.571000 10.464000 # H HOH
507 169 1 0.556400 23.481001 5.555000 10.731000 # H HOH
508 170 2 -1.112800 26.396000 24.926001 0.518000 # O HOH
509 170 1 0.556400 26.788000 25.775999 0.721000 # H HOH
510 170 1 0.556400 27.131001 24.313999 0.526000 # H HOH
511 171 2 -1.112800 15.899000 1.221000 29.792000 # O HOH
512 171 1 0.556400 16.705000 1.713000 29.951000 # H HOH
513 171 1 0.556400 16.037001 0.384000 30.237000 # H HOH
514 172 2 -1.112800 20.497000 8.252000 3.774000 # O HOH
515 172 1 0.556400 19.822001 8.930000 3.809000 # H HOH
516 172 1 0.556400 20.017000 7.444000 3.591000 # H HOH
517 173 2 -1.112800 3.077000 28.291000 29.783001 # O HOH
518 173 1 0.556400 3.449000 28.966000 29.215000 # H HOH
519 173 1 0.556400 3.615000 27.517000 29.618999 # H HOH
520 174 2 -1.112800 23.393999 19.037001 0.000000 # O HOH
521 174 1 0.556400 22.552000 19.264999 0.394000 # H HOH
522 174 1 0.556400 24.038000 19.531000 0.507000 # H HOH
523 175 2 -1.112800 18.792000 26.943001 20.525999 # O HOH
524 175 1 0.556400 19.624001 26.509001 20.716999 # H HOH
525 175 1 0.556400 18.125999 26.285000 20.725000 # H HOH
526 176 2 -1.112800 29.563999 21.046000 6.133000 # O HOH
527 176 1 0.556400 30.077999 20.497999 6.727000 # H HOH
528 176 1 0.556400 29.933001 21.923000 6.236000 # H HOH
529 177 2 -1.112800 3.562000 27.983000 22.483000 # O HOH
530 177 1 0.556400 3.396000 27.045000 22.391001 # H HOH
531 177 1 0.556400 4.515000 28.063000 22.438999 # H HOH
532 178 2 -1.112800 8.003000 5.499000 17.827999 # O HOH